17
Lattice="14.0 0.0 0.0 0.0 14.0 0.0 0.0 0.0 14.0" Properties=species:S:1:pos:R:3 cutoff=-1.0 nneightol=1.2 dft_formation_energy_per_atom_in_eV=-4.254828570313568 pbc="F F F"
C       6.23136046       9.25483310       5.89250836
O       6.28770301       7.84522811       5.89957432
C       6.95754508       7.29505619       6.94857659
C       7.59025822       7.91381026       8.00647909
N       8.11381937       6.90728701       8.79301951
C       7.81982281       5.68755122       8.24605248
C       7.09681170       5.88174573       7.09034992
C       6.55567917       4.84572674       6.15536212
H       7.23775120       9.69536197       5.84757768
H       5.66987234       9.54701473       5.00309204
H       5.72063629       9.63947729       6.78699967
H       7.71209980       8.95086523       8.26541783
H       8.63333434       7.05357642       9.63864856
H       8.14363032       4.77187738       8.71541624
H       5.46488860       4.90940740       6.06720174
H       6.95948273       4.96294507       5.14300709
H       6.80530458       3.83823620       6.50071678
20
Lattice="14.0 0.0 0.0 0.0 14.0 0.0 0.0 0.0 14.0" Properties=species:S:1:pos:R:3 cutoff=-1.0 nneightol=1.2 dft_formation_energy_per_atom_in_eV=-4.137885838832728 pbc="F F F"
C       7.89512318       8.72925930       6.69557806
C       7.82358061       7.22446856       6.63273315
C       8.25344462       6.26416425       5.49439029
N       7.72398175       5.27391562       6.54753529
C       8.49749366       6.16398114       7.53880780
C       6.57656053       6.29480783       6.69581223
C       5.66406798       6.16674934       7.91871129
C       4.68203268       7.24473521       7.96220331
C       3.88550529       8.14500423       7.97246486
H       8.93122506       9.07703281       6.62019982
H       7.32585395       9.18178738       5.87669051
H       7.47808193       9.10367375       7.63603855
H       7.67349141       6.26811705       4.56653058
H       9.32283027       6.15055211       5.29645912
H       9.58228955       6.04833079       7.45988123
H       8.18416568       6.06643414       8.57939770
H       5.94660661       6.31300421       5.79959775
H       5.15123898       5.19799112       7.85706440
H       6.22771994       6.15252165       8.85654253
H       3.17470640       8.93346952       7.99336151
12
Lattice="14.0 0.0 0.0 0.0 14.0 0.0 0.0 0.0 14.0" Properties=species:S:1:pos:R:3 cutoff=-1.0 nneightol=1.2 dft_formation_energy_per_atom_in_eV=-4.658261684066589 pbc="F F F"
O       6.85960586       4.03281626       6.98565726
C       6.87795355       5.23896022       6.99190389
N       5.74767803       6.10374359       7.01177611
C       6.19878764       7.39253661       7.01303390
C       7.55877852       7.42085818       6.99482217
N       7.98379690       6.09132962       6.98147835
C       7.85087641       8.79726513       6.99820864
N       6.74444973       9.52594664       7.01741808
O       5.65443422       8.59596005       7.02687838
H       4.80496113       5.75521374       7.02287906
H       8.92045092       5.72943250       6.96772786
H       8.79822713       9.31593749       6.98821630
14
Lattice="14.0 0.0 0.0 0.0 14.0 0.0 0.0 0.0 14.0" Properties=species:S:1:pos:R:3 cutoff=-1.0 nneightol=1.2 dft_formation_energy_per_atom_in_eV=-4.480779931956823 pbc="F F F"
O       6.95987757       9.20160702       7.00998689
C       7.03834314       7.83287504       6.95827903
C       7.63803623       7.05858713       5.72872574
O       7.84607170       5.69618485       6.09692894
C       6.51977784       6.12152254       5.76364492
C       5.88623768       6.85612747       6.98502416
C       6.83458507       6.94816811       8.17922578
C       7.69713265       5.92555034       8.71379412
N       8.36761854       5.15550603       9.25746118
H       7.80004782       9.54839437       7.33465158
H       8.21885268       7.48295387       4.91888600
H       5.99372018       5.58741008       4.98329541
H       4.82826626       7.04804486       7.10147531
H       6.37143261       7.53706824       8.96862091
20
Lattice="14.0 0.0 0.0 0.0 14.0 0.0 0.0 0.0 14.0" Properties=species:S:1:pos:R:3 cutoff=-1.0 nneightol=1.2 dft_formation_energy_per_atom_in_eV=-4.135015097660129 pbc="F F F"
O       6.99856437       9.60611105       6.85989533
C       7.02550629       8.20823840       6.71526832
C       6.44953264       7.61207028       5.45645610
C       5.68525347       7.52679409       6.76575868
C       5.54230395       6.22341148       7.53097877
C       6.80690062       5.33877334       7.48784612
C       8.06906732       6.11404687       7.84495362
N       8.95600748       6.50027710       6.72817701
C       8.17710275       7.53846269       7.42599072
H       7.66427994       9.97268984       6.26696727
H       6.07836177       8.31726466       4.72090087
H       6.92814950       6.72959503       5.04963788
H       4.84218712       8.20594542       6.85005923
H       5.30538064       6.46110897       8.57686127
H       4.69001358       5.65274809       7.14294911
H       6.67801220       4.49821700       8.17686187
H       6.92933774       4.90661064       6.48978045
H       8.54562242       5.84446148       8.78439399
H       9.92384048       6.52200876       7.03835942
H       8.70457579       8.22116478       8.08790406
13
Lattice="14.0 0.0 0.0 0.0 14.0 0.0 0.0 0.0 14.0" Properties=species:S:1:pos:R:3 cutoff=-1.0 nneightol=1.2 dft_formation_energy_per_atom_in_eV=-4.2297487766604185 pbc="F F F"
O       6.98278871       8.76454621       6.87976054
C       6.97655073       7.35466755       6.96875138
C       7.09343037       6.75765357       8.40763961
O       5.78350017       6.17191735       8.31584130
C       5.52966463       6.80180097       7.04835807
C       7.84844627       6.74356873       5.97659491
C       8.60068260       6.26829921       5.16795106
H       7.87496389       9.04791989       6.65301457
H       7.87448038       6.00772523       8.56861420
H       7.15211733       7.54329390       9.17124872
H       4.79528984       7.61311781       7.11827045
H       5.23397306       6.08614582       6.27551257
H       9.25411207       5.83934376       4.44844260
18
Lattice="14.0 0.0 0.0 0.0 14.0 0.0 0.0 0.0 14.0" Properties=species:S:1:pos:R:3 cutoff=-1.0 nneightol=1.2 dft_formation_energy_per_atom_in_eV=-4.254172096349367 pbc="F F F"
O       5.48150394       4.47173917       5.30234448
C       5.58216975       5.61593036       5.67184339
C       6.83506634       6.39756762       5.68171925
C       6.74136075       7.91316547       5.49766811
C       7.07961341       7.37154932       6.83153158
C       6.32086791       7.58897078       8.14927096
N       7.60831488       7.88063050       8.87926312
C       8.42240306       6.65859783       8.75826278
C       8.36428695       7.56570672       7.59346478
H       4.69379303       6.17928483       6.04716009
H       7.69880783       5.88463991       5.27153169
H       7.52081693       8.37950907       4.90450586
H       5.75033575       8.33398521       5.35040959
H       5.68200596       8.47517684       8.14498497
H       5.76648697       6.74231235       8.56759359
H       9.31712153       6.68768254       9.37248559
H       7.92723217       5.69045364       8.71469098
H       9.20781277       8.16309779       7.26126916
20
Lattice="14.0 0.0 0.0 0.0 14.0 0.0 0.0 0.0 14.0" Properties=species:S:1:pos:R:3 cutoff=-1.0 nneightol=1.2 dft_formation_energy_per_atom_in_eV=-4.116590261339112 pbc="F F F"
C       8.75032198       7.72311019       5.31113055
C       8.03938445       6.55231997       4.72886427
N       7.37961316       7.41276903       5.70652434
C       7.19933548       6.85837837       7.04137746
C       7.09457665       7.97145571       8.12201529
C       6.02393104       7.49088256       9.08633113
O       4.69967973       7.62264097       8.55668574
C       5.32070160       6.33279075       8.51037919
C       5.90203454       6.00755409       7.14531110
H       9.54842982       7.51506354       6.02248910
H       8.88174035       8.63396274       4.73446470
H       7.64185524       6.59208955       3.71898529
H       8.36377773       5.56414755       5.05224456
H       8.05225992       6.20739467       7.30893001
H       8.05128664       8.13595804       8.62651279
H       6.78703105       8.91497763       7.66108103
H       6.11454234       7.66191905      10.15654093
H       4.84145242       5.56536969       9.11386743
H       5.19804987       6.29821292       6.35968949
H       6.10999607       4.93900303       7.03657561
15
Lattice="14.0 0.0 0.0 0.0 14.0 0.0 0.0 0.0 14.0" Properties=species:S:1:pos:R:3 cutoff=-1.0 nneightol=1.2 dft_formation_energy_per_atom_in_eV=-4.2705205510990965 pbc="F F F"
C       7.86047090       8.46180020       6.85663736
C       7.73078870       6.94324800       6.76569963
O       6.39088123       6.46750505       6.75498001
C       5.73173827       6.55941533       7.99500547
C       4.45546798       5.84297162       7.90889714
N       3.44432705       5.28751438       7.87140956
C       8.36245524       6.38856285       5.48917769
O       9.36228876       6.83368350       4.99396970
H       8.89950353       8.73661578       6.66070166
H       7.22748337       8.93914580       6.10327537
H       7.58112799       8.83779772       7.84416855
H       8.27787555       6.47297746       7.60443320
H       6.33233190       6.11018015       8.80277871
H       5.52588097       7.60136038       8.28065990
H       7.81737849       5.51722180       5.06820601
25
Lattice="14.0 0.0 0.0 0.0 14.0 0.0 0.0 0.0 14.0" Properties=species:S:1:pos:R:3 cutoff=-1.0 nneightol=1.2 dft_formation_energy_per_atom_in_eV=-3.874119229142889 pbc="F F F"
C       5.16253301       9.75188391       7.04632460
O       5.42044926       8.37288573       6.94164307
C       6.00207294       7.77977195       8.09923703
C       4.96626598       7.56917614       9.20754093
C       6.63473087       6.46191028       7.64913086
C       7.75460504       6.63723853       6.61881278
C       8.35710955       5.30664862       6.15989130
C       9.46719640       5.48148544       5.13252601
O       9.95436603       4.19311113       4.78462762
H       6.07059571      10.31751513       7.30988252
H       4.81182008      10.08946297       6.06738315
H       4.38664703       9.98630282       7.78997400
H       6.79863823       8.44669498       8.47539922
H       4.16691863       6.90791139       8.85802220
H       5.43301661       7.11404446      10.08689617
H       4.51454859       8.51335893       9.52508778
H       7.01994911       5.94089075       8.53467451
H       5.84240194       5.82739107       7.23090203
H       7.35536012       7.18624849       5.75889391
H       8.54531857       7.26863539       7.04886460
H       8.76356653       4.75555837       7.01742406
H       7.57797486       4.66978947       5.72292942
H       9.07455203       6.01107425       4.24879676
H      10.26962034       6.10886862       5.55543902
H      10.64974261       4.30214120       4.12969648
19
Lattice="14.0 0.0 0.0 0.0 14.0 0.0 0.0 0.0 14.0" Properties=species:S:1:pos:R:3 cutoff=-1.0 nneightol=1.2 dft_formation_energy_per_atom_in_eV=-4.18434935962653 pbc="F F F"
C       5.40779779       8.76395327       6.03003577
C       5.82783549       7.31509482       6.16701583
O       6.97042454       6.96949250       5.26279370
C       7.84750104       7.15004253       6.41850494
C       8.72147110       6.32965938       7.46541547
C       7.78867817       7.15523545       8.50773616
C       6.72492043       6.84731411       7.35767969
C       6.74192729       5.30626990       7.40612143
C       8.02920399       4.97722959       7.48846372
H       6.22056365       9.45143513       6.27872959
H       5.09243006       8.96584512       5.00216112
H       4.56348276       8.97302453       6.69552410
H       4.98947822       6.64150871       5.95960411
H       8.20208389       8.18688130       6.40644965
H       9.80954121       6.38862201       7.51231620
H       7.63505696       6.67352786       9.47532453
H       8.06464082       8.20661639       8.62409408
H       5.85533445       4.68721390       7.38812341
H       8.50762815       4.01103346       7.55390655
19
Lattice="14.0 0.0 0.0 0.0 14.0 0.0 0.0 0.0 14.0" Properties=species:S:1:pos:R:3 cutoff=-1.0 nneightol=1.2 dft_formation_energy_per_atom_in_eV=-4.263336881703956 pbc="F F F"
C       5.80882110       3.78669573       6.61172011
C       5.78972326       4.98848808       6.59077663
C       5.77082980       6.44543628       6.57004462
C       7.12655421       7.11756934       6.81511657
C       8.11172381       6.52156901       7.78370076
C       8.39346489       6.48016924       6.30018198
C       7.02296128       8.61440159       6.73239344
C       6.83960702       9.46582433       7.91718089
O       8.10525530       9.38034825       7.25343981
H       5.81617479       2.72494196       6.62679456
H       5.37738663       6.78104504       5.59969058
H       5.05535605       6.80362634       7.32342861
H       8.69758447       7.21049061       8.38072442
H       7.83743520       5.59268491       8.27035539
H       8.31043713       5.52474862       5.79483518
H       9.16332662       7.14164029       5.91871359
H       6.63758289       8.99143207       5.78137472
H       6.33256239      10.42507061       7.82724759
H       6.80321307       9.00381772       8.90228054
21
Lattice="14.0 0.0 0.0 0.0 14.0 0.0 0.0 0.0 14.0" Properties=species:S:1:pos:R:3 cutoff=-1.0 nneightol=1.2 dft_formation_energy_per_atom_in_eV=-4.222199281415629 pbc="F F F"
C       7.54807753       9.38659662       7.28898558
C       7.45939680       7.89286747       7.24007117
C       6.36403797       7.12235362       7.33802668
C       4.93869389       7.54590386       7.52228802
C       6.69833849       5.65583782       7.21835823
C       6.57163600       5.05559637       5.79648773
O       7.97866255       5.25330318       5.55005506
C       8.21850529       5.63663832       6.92629834
C       8.72583235       7.07353931       7.07062957
H       8.22036359       9.71231182       8.09363227
H       7.96899874       9.78393477       6.35630392
H       6.57856449       9.86415747       7.44866578
H       4.82424222       8.63063533       7.58092215
H       4.31017464       7.18912485       6.69584591
H       4.51716891       7.11391129       8.43945974
H       6.29956410       5.04210652       8.03136587
H       6.30006655       3.99132209       5.77100059
H       5.94524306       5.60426848       5.08257420
H       8.83460373       4.89058893       7.44005890
H       9.29728456       7.36047786       6.17857728
H       9.40054445       7.19452397       7.93039303
18
Lattice="14.0 0.0 0.0 0.0 14.0 0.0 0.0 0.0 14.0" Properties=species:S:1:pos:R:3 cutoff=-1.0 nneightol=1.2 dft_formation_energy_per_atom_in_eV=-4.3318863319581045 pbc="F F F"
O       9.12296166       8.98239600       8.15192451
C       8.68291565       8.52744705       6.86952963
C       7.30587272       7.95656213       6.85803122
C       6.05311952       8.56505931       6.85419880
C       5.02295926       7.57672425       6.91532943
C       5.69306069       6.37459288       6.97863408
C       5.87538329       4.86602668       6.92403186
C       7.41654508       5.19387669       6.84844079
N       7.03135710       6.61261604       6.96087203
H       8.84529145       8.32476605       8.79731844
H       8.72784220       9.40694559       6.22033701
H       9.38862339       7.78607028       6.46041854
H       5.89885699       9.63437495       6.82511583
H       3.95897625       7.75273111       6.90971391
H       5.57296360       4.30581950       7.81288666
H       5.47916988       4.36427139       6.03738417
H       8.02902002       4.82862010       7.67764779
H       7.89508133       4.94109998       5.89818536
18
Lattice="14.0 0.0 0.0 0.0 14.0 0.0 0.0 0.0 14.0" Properties=species:S:1:pos:R:3 cutoff=-1.0 nneightol=1.2 dft_formation_energy_per_atom_in_eV=-4.364579312666512 pbc="F F F"
C       6.27872078       9.20226669       6.93335118
C       6.26182953       7.67239189       6.90347955
C       7.03058301       7.05488117       5.70526605
C       7.51185822       5.66077988       6.16933543
C       7.66375151       5.82636490       7.67406719
O       8.35362165       7.02632386       8.05914330
C       6.92105602       7.02605202       8.10949294
C       7.86996083       4.67538475       8.51950784
N       8.02601853       3.72974637       9.16566659
H       7.30527402       9.57231429       7.01910160
H       5.84437656       9.61421692       6.01724298
H       5.70476518       9.59286592       7.77981382
H       5.21991622       7.32299591       6.89005401
H       6.41350183       6.99959869       4.80576433
H       7.89508913       7.68164299       5.47362387
H       6.76192354       4.88518296       5.97813194
H       8.44344992       5.34709048       5.69102121
H       6.49430347       7.10990031       9.10593619
15
Lattice="14.0 0.0 0.0 0.0 14.0 0.0 0.0 0.0 14.0" Properties=species:S:1:pos:R:3 cutoff=-1.0 nneightol=1.2 dft_formation_energy_per_atom_in_eV=-4.141891039681194 pbc="F F F"
C       8.29242694       9.03494009       7.22648075
O       8.23570653       7.62291423       7.31539949
C       6.95269017       7.13131954       7.60372606
O       6.03641787       7.33054837       6.53639589
C       5.76555380       6.09121198       5.88726050
C       6.38447019       5.04767916       6.77276074
C       7.03671181       5.63695588       7.76652724
H       9.33743605       9.30367292       7.05690314
H       7.68157458       9.41013159       6.39661337
H       7.94857516       9.50980923       8.15847561
H       6.55182673       7.67204486       8.47771754
H       4.67720689       5.97810823       5.78878126
H       6.19148959       6.07474239       4.87193758
H       6.30134471       3.98516829       6.58287664
H       7.60656901       5.17075327       8.55814425
21
Lattice="14.0 0.0 0.0 0.0 14.0 0.0 0.0 0.0 14.0" Properties=species:S:1:pos:R:3 cutoff=-1.0 nneightol=1.2 dft_formation_energy_per_atom_in_eV=-4.187766499062523 pbc="F F F"
O       6.04294468       4.28986027       5.60400521
C       6.07011528       5.49400175       5.64698799
C       7.32108728       6.32636190       5.67755945
C       7.21692968       7.59175087       4.76439616
C       6.86552184       8.44974918       6.00580122
C       7.40629107       7.30884253       6.91265785
C       6.70279389       6.97596319       8.19943573
C       7.38866293       6.13145161       9.24615698
C       7.16383798       7.60074503       9.49532491
H       5.11955252       6.08024561       5.65318813
H       8.17635320       5.66444137       5.53012021
H       8.18952303       7.84656438       4.33761259
H       6.48422510       7.55476106       3.95393282
H       7.33635802       9.43116721       6.09733600
H       5.78474898       8.57709183       6.12312819
H       8.46886240       7.47755375       7.12101825
H       5.62911035       6.83118501       8.10841927
H       6.79253663       5.41493475       9.79957169
H       8.40183669       5.80049109       9.04278357
H       8.02557021       8.25961703       9.45963901
H       6.41313822       7.89322056      10.22092477
20
Lattice="14.0 0.0 0.0 0.0 14.0 0.0 0.0 0.0 14.0" Properties=species:S:1:pos:R:3 cutoff=-1.0 nneightol=1.2 dft_formation_energy_per_atom_in_eV=-3.94871548544466 pbc="F F F"
C       6.84906165       9.25450365       8.25429557
O       6.70496116       7.87418141       8.01342994
C       7.16660053       7.43805823       6.74197492
C       8.69399013       7.43816295       6.62696156
C       6.57282197       6.04937461       6.52882853
C       6.89683613       4.99610638       7.56320879
C       5.35400781       5.93331692       5.71771944
O       6.63702980       5.62209696       5.16081519
H       7.90080720       9.56446016       8.33413092
H       6.37181399       9.85565345       7.46423679
H       6.35334521       9.46758973       9.20477807
H       6.75797183       8.09513755       5.95690311
H       8.98777212       6.98136647       5.67764531
H       9.09514329       8.45504013       6.64866681
H       9.14859518       6.87532668       7.44720540
H       6.59100585       5.33973442       8.55469922
H       6.37966285       4.06213261       7.33100571
H       7.97112271       4.78847473       7.59060065
H       4.69122244       5.08104750       5.86179688
H       4.87622808       6.82823552       5.32109719
13
Lattice="14.0 0.0 0.0 0.0 14.0 0.0 0.0 0.0 14.0" Properties=species:S:1:pos:R:3 cutoff=-1.0 nneightol=1.2 dft_formation_energy_per_atom_in_eV=-4.408805476571143 pbc="F F F"
C       6.39303313       9.13934203       6.27281004
N       6.51357665       7.69607870       6.31567685
C       7.18033524       7.03810408       7.28364646
O       7.76276285       7.53432570       8.23646346
C       7.15432521       5.51423493       7.09086578
O       6.58998136       4.98962696       6.16357080
C       7.89944989       4.68463426       8.16278868
O       7.93025670       3.48598346       8.09079874
H       6.83693631       9.54388096       5.35725795
H       5.34346263       9.44771592       6.32014384
H       6.92388524       9.54205669       7.13642259
H       6.09023254       7.12085547       5.60146488
H       8.38176225       5.26316089       8.96808998
20
Lattice="14.0 0.0 0.0 0.0 14.0 0.0 0.0 0.0 14.0" Properties=species:S:1:pos:R:3 cutoff=-1.0 nneightol=1.2 dft_formation_energy_per_atom_in_eV=-4.2208507256189005 pbc="F F F"
C       7.41699154       8.80180333       5.83600475
C       7.39209612       7.30912970       5.78163982
C       7.35980840       6.46566716       4.69217481
C       7.36467731       5.12721259       5.17167156
C       7.40027565       5.19181309       6.54227042
N       7.42106225       6.51827710       6.91552262
C       7.38275051       6.98177829       8.28715894
C       5.95532729       7.12512999       8.82050263
O       6.06320783       7.56995977      10.16062011
H       8.31542022       9.19042764       6.33251276
H       7.40968988       9.19898819       4.81833644
H       6.55081314       9.22630945       6.35962223
H       7.34711670       6.78498225       3.66059284
H       7.35624900       4.22455596       4.58021315
H       7.42200190       4.41590033       7.29165348
H       7.92884494       6.27441520       8.91804412
H       7.89330885       7.94517362       8.36505893
H       5.39845008       7.83874971       8.19404023
H       5.44391163       6.15320225       8.74729595
H       5.17799685       7.65652443      10.52506427
17
Lattice="14.0 0.0 0.0 0.0 14.0 0.0 0.0 0.0 14.0" Properties=species:S:1:pos:R:3 cutoff=-1.0 nneightol=1.2 dft_formation_energy_per_atom_in_eV=-4.336702354389095 pbc="F F F"
C       5.75794919       8.73327433       6.13609700
C       5.75096744       7.20038541       6.21134272
O       6.47954213       6.69822668       7.32076823
C       7.87822399       6.63987937       7.12813277
C       8.45001363       5.92775523       8.35986282
C       9.90331250       5.81434271       8.29128852
N      11.05335779       5.73589685       8.21636699
C       4.37471200       6.69129647       6.34056053
N       3.28614015       6.31417918       6.41602089
H       6.77726422       9.09951478       5.99144183
H       5.14871382       9.07420122       5.29496780
H       5.35434989       9.15491388       7.05932049
H       6.16332343       6.78545153       5.27775734
H       8.12538538       6.07741068       6.21544339
H       8.32073619       7.64131155       7.03715512
H       8.16921160       6.48171920       9.26149523
H       8.00679659       4.93024093       8.44197838
19
Lattice="14.0 0.0 0.0 0.0 14.0 0.0 0.0 0.0 14.0" Properties=species:S:1:pos:R:3 cutoff=-1.0 nneightol=1.2 dft_formation_energy_per_atom_in_eV=-4.265294670046739 pbc="F F F"
C       5.20216155       4.48816972       6.16127679
C       5.37721642       5.63223245       6.49027029
C       5.60467783       7.00531351       6.88802734
C       5.92402004       7.33179193       8.38131436
C       6.95318377       8.38584448       7.90161385
C       6.95674988       7.71844998       6.49645882
C       8.10703258       6.77860216       6.23101001
C       9.50049376       7.13221332       6.52391390
O       8.78837129       6.21438381       7.35719122
H       5.04393320       3.47702372       5.87885318
H       4.77022851       7.62702770       6.54585644
H       5.08785012       7.66985018       8.99644758
H       6.41664370       6.48805093       8.86663000
H       6.53881732       9.39644816       7.86750969
H       7.90402100       8.40705222       8.43520048
H       6.86444560       8.39285022       5.63879707
H       7.92700005       6.06141640       5.42936177
H      10.30406059       6.69838142       5.93068388
H       9.72909284       8.09489771       6.97958336
21
Lattice="14.0 0.0 0.0 0.0 14.0 0.0 0.0 0.0 14.0" Properties=species:S:1:pos:R:3 cutoff=-1.0 nneightol=1.2 dft_formation_energy_per_atom_in_eV=-4.147821465321531 pbc="F F F"
C       6.64027303       9.98487593       6.87298932
C       6.60796284       8.46967996       6.84246404
C       7.90711277       7.74639719       6.57535917
C       7.29069626       7.73145289       7.96992481
C       7.14504199       6.20377633       8.11877172
O       8.45825538       5.74040442       7.63107312
C       7.93123804       6.22283663       6.34010053
C       6.54277290       5.69024629       6.78386445
C       6.37039949       4.18002829       6.69148271
H       7.58195725      10.35322095       7.29310234
H       6.53920299      10.40062175       5.86475670
H       5.82346634      10.38325611       7.48431073
H       5.68696781       8.07099596       6.43109795
H       8.79979433       8.31743111       6.34641140
H       7.71777809       8.29120114       8.79434012
H       6.87189807       5.79727378       9.09312880
H       8.47109850       5.83604111       5.47513591
H       5.65366071       6.19036710       6.39622512
H       7.25208181       3.66374572       7.07573538
H       5.49712414       3.85442190       7.26748122
H       6.21121733       3.87172541       5.65224441
25
Lattice="14.0 0.0 0.0 0.0 14.0 0.0 0.0 0.0 14.0" Properties=species:S:1:pos:R:3 cutoff=-1.0 nneightol=1.2 dft_formation_energy_per_atom_in_eV=-3.9655048445612664 pbc="F F F"
C       8.84455674       8.92395702       7.48832656
C       8.66317134       7.39953434       7.46450105
C       9.47597334       6.74353313       8.58824746
C       7.18266448       6.97613339       7.55752695
C       6.35728493       7.36644448       6.34293331
O       6.84982891       6.75530583       5.12241695
C       5.54169072       6.25696220       4.78360037
C       4.94031487       6.75751878       6.11587005
C       4.42690072       5.68800064       7.07178376
H       9.90530918       9.18888416       7.42730860
H       8.33742072       9.41521526       6.65287981
H       8.45023988       9.35172440       8.41865660
H       9.04127390       7.02448941       6.50500816
H       9.12235889       7.07303789       9.57314825
H       9.39614400       5.65183232       8.55462830
H      10.53684346       7.00499363       8.51383390
H       7.13731340       5.88861704       7.68430381
H       6.72639095       7.42145110       8.45388862
H       6.34769267       8.46020072       6.23396513
H       5.14319163       6.73094949       3.87685222
H       5.54228596       5.16824476       4.64047020
H       4.17493686       7.52691913       5.98341773
H       5.14217179       4.86808265       7.18874594
H       4.22065936       6.09977431       8.06527818
H       3.49338135       5.25819385       6.69240808
19
Lattice="14.0 0.0 0.0 0.0 14.0 0.0 0.0 0.0 14.0" Properties=species:S:1:pos:R:3 cutoff=-1.0 nneightol=1.2 dft_formation_energy_per_atom_in_eV=-4.251757716560426 pbc="F F F"
C       6.29336915       8.96075119       7.00529233
C       7.81002877       8.61399990       7.00143915
C       7.59480387       7.38570786       7.93771188
C       8.24601591       6.35616530       6.99402013
C       7.50854113       5.00942260       6.99572953
O       6.16668537       5.10407172       6.51681609
C       5.41859018       6.23811101       6.96069167
C       6.34569925       7.42106384       6.99209082
C       7.60008818       7.39445531       6.04732089
H       5.90057945       9.43635526       7.91026301
H       5.89524681       9.45145291       6.11066649
H       8.66179351       9.29582204       7.00691286
H       7.55833004       7.39435426       9.02961065
H       9.33517696       6.24163334       7.00829668
H       7.99338375       4.29268005       6.32488701
H       7.52786313       4.57793432       8.01195379
H       4.60350333       6.35715257       6.23828329
H       4.97008883       6.05294751       7.95113506
H       7.57021244       7.41591902       4.95687868
18
Lattice="14.0 0.0 0.0 0.0 14.0 0.0 0.0 0.0 14.0" Properties=species:S:1:pos:R:3 cutoff=-1.0 nneightol=1.2 dft_formation_energy_per_atom_in_eV=-4.347046103092053 pbc="F F F"
C       6.12545809       8.81396362       8.51935242
C       6.43757434       7.30625964       8.57076004
C       7.16687452       6.81728904       7.35948563
C       8.41405563       6.31837433       7.29273086
C       8.77207893       5.94171369       5.90155621
O       9.83676185       5.54683057       5.48779422
C       7.52046841       6.19787561       5.07194104
N       6.36675056       5.36675097       5.53041339
C       6.52429537       6.77228794       5.99677857
H       7.04606957       9.40159920       8.45638062
H       5.50485146       9.06838678       7.65438113
H       5.58442714       9.12231204       9.41837530
H       7.02611476       7.08277966       9.46623286
H       5.49478871       6.74958807       8.66067410
H       9.09036247       6.16653505       8.12471754
H       7.60806316       6.46279206       4.02541506
H       5.68456308       5.34913425       4.77085603
H       5.79644192       7.51552743       5.69215503
19