17
Lattice="14.0 0.0 0.0 0.0 14.0 0.0 0.0 0.0 14.0" Properties=species:S:1:pos:R:3 cutoff=-1.0 nneightol=1.2 dft_formation_energy_per_atom_in_eV=-4.254828570313568 SOAP-n4-l3-c1.9-g0.23="0.17692769 0.1175001 0.077096924 0.07283853 0.08000318 0.053799883 0.041617326 0.038421575 0.02079042 0.056301218 4.7052e-05 -0.00018994993 0.00024413255 -6.975892e-05 0.0016175817 -0.0006378545 -0.0027456156 0.0021837854 -0.002737392 0.01254756 6.3632564e-05 -0.00021374792 0.0002949527 -0.00013023986 0.0015559469 -0.0011626219 -0.0026250097 0.001824623 -0.0005998867 0.012386712 7.525384e-05 -0.00022505315 0.00028072615 -0.000106502266 0.0022338363 -0.0014527142 -0.006557559 0.0016919927 0.0017702336 0.031163108 0.1181485 0.08100671 0.03691366 0.06288923 0.056661945 0.024836695 0.041978363 0.01864098 0.010549882 0.047930073 1.1267109e-05 -0.00011583685 8.116385e-05 0.00014038132 0.0015533275 -0.00025097164 -0.0033819145 0.0055784993 -0.008588868 0.022473337 1.8659583e-05 -0.00013862763 0.00023209245 -2.9105553e-05 0.0018076842 -0.0015038884 -0.003124682 0.0069134994 -0.00873888 0.028325768 2.1732598e-05 -0.00012914265 0.0003455728 -0.00028253515 0.0016395056 -0.0027657058 -0.001222578 0.010624591 -0.012066267 0.035077196 0.019943848 0.012507153 0.009898568 0.0072943983 0.008091246 0.0060642636 0.004226945 0.005778158 0.0026192202 0.0050043426 2.0090356e-06 1.3174208e-05 1.9819083e-05 -8.314064e-05 0.00033924036 -0.0003609098 -0.00050537585 0.0013769201 -0.0012776732 0.0040796576 3.6659956e-06 1.614574e-05 4.5182414e-06 -0.00010899711 0.00025191167 -0.00044698262 -0.00036026165 0.001559695 -0.0011463611 0.004737027 4.8676293e-06 1.0731991e-05 -1.04032615e-05 -0.00010447605 0.00013519674 -0.0003738866 -0.00014338591 0.0014968348 -0.0009657941 0.004573684 0.019943804 0.01249816 0.009898272 0.0073141116 0.007896202 0.005979609 0.0047897995 0.0057261814 0.0028720843 0.0033897527 1.5006708e-06 -9.7531265e-06 3.175726e-05 -3.0327281e-05 8.617369e-05 -0.00033084804 0.0003342188 0.0013564198 -0.0013977485 0.0014487373 2.8799227e-06 -1.3001112e-05 3.6983318e-05 -3.7192778e-05 8.732456e-05 -0.00033339337 0.00037440716 0.0014520867 -0.0016947299 0.0019985812 4.858515e-06 -1.601621e-05 3.7262704e-05 -3.749909e-05 7.7313365e-05 -0.0002786997 0.00034141677 0.0012931527 -0.0017041513 0.0022860796" pbc="F F F"
C        6.23136046       9.25483310       5.89250836
O        6.28770301       7.84522811       5.89957432
C        6.95754508       7.29505619       6.94857659
C        7.59025822       7.91381026       8.00647909
N        8.11381937       6.90728701       8.79301951
C        7.81982281       5.68755122       8.24605248
C        7.09681170       5.88174573       7.09034992
C        6.55567917       4.84572674       6.15536212
H        7.23775120       9.69536197       5.84757768
H        5.66987234       9.54701473       5.00309204
H        5.72063629       9.63947729       6.78699967
H        7.71209980       8.95086523       8.26541783
H        8.63333434       7.05357642       9.63864856
H        8.14363032       4.77187738       8.71541624
H        5.46488860       4.90940740       6.06720174
H        6.95948273       4.96294507       5.14300709
H        6.80530458       3.83823620       6.50071678
20
Lattice="14.0 0.0 0.0 0.0 14.0 0.0 0.0 0.0 14.0" Properties=species:S:1:pos:R:3 cutoff=-1.0 nneightol=1.2 dft_formation_energy_per_atom_in_eV=-4.137885838832728 SOAP-n4-l3-c1.9-g0.23="0.18400525 0.12160834 0.08127111 0.07494415 0.082084425 0.056243937 0.04335454 0.04044801 0.022729743 0.054708015 3.2620734e-05 -0.00017542037 0.00012784719 0.000141895 0.0014312497 2.199552e-05 -0.0032493337 0.0016949199 -0.0033062983 0.013663094 6.0656595e-05 -0.0002320341 0.0002880381 -1.9463609e-05 0.0015840754 -0.0007993834 -0.0031170377 0.0015886705 -0.0016283055 0.014884261 9.468153e-05 -0.0003188353 0.00040863274 -1.6927317e-05 0.0024699734 -0.0016548212 -0.0064400346 0.0018784773 0.001119395 0.030430142 0.13291514 0.09286385 0.038636394 0.073731855 0.066461414 0.026801592 0.049569514 0.016594099 0.013794002 0.054966547 4.5723864e-05 -0.00026622656 0.00029592932 5.936391e-05 0.0022768853 -0.0005902771 -0.004168517 0.0056407778 -0.0086599635 0.025045171 5.1603147e-05 -0.0002594612 0.0004016001 -9.482677e-05 0.002327265 -0.001529036 -0.004290121 0.0063223206 -0.008446743 0.032333218 0.00010150108 -0.00043780045 0.00084562774 -0.00050471764 0.0028443502 -0.003784787 -0.0024051305 0.008272388 -0.0060644886 0.029761309 0.016954431 0.0106118815 0.008436473 0.006202356 0.006760524 0.0050288136 0.004081595 0.0047348277 0.0026601274 0.0026073342 8.430021e-06 -4.1738138e-05 9.636134e-05 -7.576532e-05 0.00020862017 -0.0004850743 0.00038278927 0.0011337993 -0.00089711294 0.0007107969 1.6269521e-05 -6.80941e-05 0.00015154477 -0.00012712754 0.00028867793 -0.00064924604 0.0005476979 0.0014725592 -0.0012477658 0.0010597379 2.4129678e-05 -8.790223e-05 0.00019025417 -0.0001700144 0.00032567533 -0.00071567076 0.0006448485 0.001593681 -0.0014461728 0.0013172136 0.0 0.0 0.0 0.0 0.0 0.0 0.0 0.0 0.0 0.0 0.0 0.0 0.0 0.0 0.0 0.0 0.0 0.0 0.0 0.0 0.0 0.0 0.0 0.0 0.0 0.0 0.0 0.0 0.0 0.0 0.0 0.0 0.0 0.0 0.0 0.0 0.0 0.0 0.0 0.0" pbc="F F F"
C        7.89512318       8.72925930       6.69557806
C        7.82358061       7.22446856       6.63273315
C        8.25344462       6.26416425       5.49439029
N        7.72398175       5.27391562       6.54753529
C        8.49749366       6.16398114       7.53880780
C        6.57656053       6.29480783       6.69581223
C        5.66406798       6.16674934       7.91871129
C        4.68203268       7.24473521       7.96220331
C        3.88550529       8.14500423       7.97246486
H        8.93122506       9.07703281       6.62019982
H        7.32585395       9.18178738       5.87669051
H        7.47808193       9.10367375       7.63603855
H        7.67349141       6.26811705       4.56653058
H        9.32283027       6.15055211       5.29645912
H        9.58228955       6.04833079       7.45988123
H        8.18416568       6.06643414       8.57939770
H        5.94660661       6.31300421       5.79959775
H        5.15123898       5.19799112       7.85706440
H        6.22771994       6.15252165       8.85654253
H        3.17470640       8.93346952       7.99336151
12
Lattice="14.0 0.0 0.0 0.0 14.0 0.0 0.0 0.0 14.0" Properties=species:S:1:pos:R:3 cutoff=-1.0 nneightol=1.2 dft_formation_energy_per_atom_in_eV=-4.658261684066589 SOAP-n4-l3-c1.9-g0.23="0.08476015 0.05315098 0.041985136 0.031129695 0.03401725 0.026727604 0.017464185 0.021157146 0.01410303 0.017735472 4.8138468e-06 3.6830188e-05 -1.452048e-05 -0.000115636474 0.0010172845 3.6098536e-06 -0.0032276337 0.00013247697 -0.00011699023 0.010383471 1.042401e-05 4.4144184e-05 -3.7919213e-05 -0.00020403664 0.000818568 -0.0004530721 -0.0029366827 0.00039353035 0.0015396046 0.011014373 1.32883315e-05 3.4133347e-05 -6.278033e-05 -0.00023359612 0.00046896495 -0.0005463601 -0.0020071492 0.0007900251 0.0024206901 0.0094031235 0.112108715 0.075030304 0.039022006 0.05651244 0.050896313 0.024425758 0.039052993 0.02166752 0.011369206 0.037809514 9.239327e-06 -6.709707e-05 0.0001275341 -6.0331728e-05 0.00072979974 -0.0016028499 0.00084018434 0.009014804 -0.010522749 0.014741571 1.2744491e-05 -6.595644e-05 9.689379e-05 -1.5481834e-05 0.0006708543 -0.0014040265 0.0005152105 0.008267493 -0.01073124 0.01814781 1.5379928e-05 -6.640934e-05 0.00011916221 -5.961547e-05 0.0006502892 -0.0018326006 0.0012649767 0.010647363 -0.014779948 0.026055032 0.0846951 0.053236548 0.04189552 0.031090314 0.03439263 0.025229976 0.01919454 0.025376128 0.010548667 0.019796206 7.5134353e-06 2.1546295e-05 9.240707e-05 -0.00025726703 0.0010585488 -0.0013265143 -0.0011349975 0.005076928 -0.004831972 0.01275517 1.3733747e-05 2.141425e-05 8.207023e-05 -0.00036630547 0.00084236567 -0.0016322159 -0.0006551918 0.0056435373 -0.004605534 0.014887943 1.8053566e-05 6.0938146e-06 3.4775687e-05 -0.0003485606 0.00053816277 -0.0015787446 0.00017513342 0.0064385976 -0.0055329637 0.016558977 0.05650717 0.03541911 0.02798981 0.020783672 0.02228322 0.017328786 0.013202213 0.015633741 0.008338618 0.009879249 4.0536515e-06 -1.8752733e-05 -8.862633e-06 4.6516958e-05 0.00012745314 -0.00026247487 0.00015581562 0.0024821511 -0.003181725 0.004407778 6.2819095e-06 -2.7709631e-05 -5.2189916e-06 7.032816e-05 0.00015557323 -0.00022786357 3.1492218e-05 0.0023281144 -0.0034173029 0.0057124733 7.091054e-06 -3.0454094e-05 4.699788e-06 7.419101e-05 0.00015478743 -0.00018515652 -8.2182e-05 0.001853683 -0.003045805 0.006120607" pbc="F F F"
O        6.85960586       4.03281626       6.98565726
C        6.87795355       5.23896022       6.99190389
N        5.74767803       6.10374359       7.01177611
C        6.19878764       7.39253661       7.01303390
C        7.55877852       7.42085818       6.99482217
N        7.98379690       6.09132962       6.98147835
C        7.85087641       8.79726513       6.99820864
N        6.74444973       9.52594664       7.01741808
O        5.65443422       8.59596005       7.02687838
H        4.80496113       5.75521374       7.02287906
H        8.92045092       5.72943250       6.96772786
H        8.79822713       9.31593749       6.98821630
14
Lattice="14.0 0.0 0.0 0.0 14.0 0.0 0.0 0.0 14.0" Properties=species:S:1:pos:R:3 cutoff=-1.0 nneightol=1.2 dft_formation_energy_per_atom_in_eV=-4.480779931956823 SOAP-n4-l3-c1.9-g0.23="0.12107689 0.07593514 0.05991258 0.04454292 0.048336323 0.03821981 0.025557337 0.030693991 0.019490128 0.02477558 1.1825005e-05 -5.5394407e-06 -5.206218e-05 1.7349254e-05 0.0012020313 0.00032482226 -0.004041559 0.00049753574 -0.0013560102 0.013964789 1.523318e-05 -1.1199366e-05 -4.779464e-05 -2.756631e-05 0.0011219371 -0.0002508157 -0.004029957 0.00042813813 0.0008643694 0.015115515 1.8137891e-05 -5.130948e-06 -3.4355784e-05 -0.00015106339 0.00072551117 -0.00050124974 -0.0029099914 0.00073340174 0.0021177668 0.013508557 0.14069544 0.10426893 0.032548845 0.082126096 0.07815443 0.023738908 0.060060956 0.01218821 0.012952117 0.057817556 5.712453e-05 -0.0003249237 0.0006725379 -0.00043020755 0.0023693687 -0.003368898 0.00027311547 0.012050589 -0.012928027 0.021821486 5.6547207e-05 -0.00027590006 0.0005909178 -0.0004201559 0.0020570941 -0.0028940518 -0.0006065066 0.009193999 -0.009990602 0.02359589 0.00011451476 -0.00046807565 0.0010816014 -0.0009584387 0.0025671427 -0.0048659355 0.0015460524 0.012677762 -0.0121417865 0.026899533 0.024217661 0.015178016 0.011976392 0.008935638 0.009545529 0.0076261787 0.005401461 0.0063608885 0.003694078 0.00449613 2.2792967e-06 -1.354502e-05 -2.830189e-05 7.124304e-05 8.049495e-05 0.00016819856 -0.000423393 0.0003514854 -0.0008847466 0.0022270686 2.6904568e-06 -1.7570852e-05 -2.0560505e-05 8.43206e-05 0.000114760594 0.000134301 -0.00055075536 0.00015719107 -0.0006445838 0.002643282 2.096999e-06 -1.5391304e-05 -8.73946e-06 7.326545e-05 0.00011299548 6.418286e-05 -0.0005379478 3.6473797e-05 -0.00030561446 0.0025612228 0.04843762 0.030382516 0.024036048 0.017691245 0.019455548 0.014658166 0.010722981 0.013300138 0.00752869 0.009716286 1.0148285e-05 2.8200759e-05 4.4760392e-05 -0.00022512316 0.0005125081 -0.00083008467 -0.00041558145 0.0024581354 -0.0017282817 0.0055570416 1.3889493e-05 1.5904468e-05 3.236683e-05 -0.00027580647 0.00037336748 -0.0009487166 -2.231277e-05 0.0029846372 -0.0018167344 0.006466776 1.3502899e-05 -2.2077825e-06 1.8572942e-05 -0.00025035982 0.00021524448 -0.0007657854 0.0003173327 0.0029112466 -0.0018039335 0.006292106" pbc="F F F"
O        6.95987757       9.20160702       7.00998689
C        7.03834314       7.83287504       6.95827903
C        7.63803623       7.05858713       5.72872574
O        7.84607170       5.69618485       6.09692894
C        6.51977784       6.12152254       5.76364492
C        5.88623768       6.85612747       6.98502416
C        6.83458507       6.94816811       8.17922578
C        7.69713265       5.92555034       8.71379412
N        8.36761854       5.15550603       9.25746118
H        7.80004782       9.54839437       7.33465158
H        8.21885268       7.48295387       4.91888600
H        5.99372018       5.58741008       4.98329541
H        4.82826626       7.04804486       7.10147531
H        6.37143261       7.53706824       8.96862091
20
Lattice="14.0 0.0 0.0 0.0 14.0 0.0 0.0 0.0 14.0" Properties=species:S:1:pos:R:3 cutoff=-1.0 nneightol=1.2 dft_formation_energy_per_atom_in_eV=-4.135015097660129 SOAP-n4-l3-c1.9-g0.23="0.18526712 0.11922617 0.08697987 0.07157705 0.0780168 0.057678975 0.04129073 0.044169556 0.02604517 0.046989307 2.43227e-05 -8.012873e-05 7.659522e-06 8.033021e-05 0.0016810058 0.00022752417 -0.0048783817 0.0010572007 -0.0022550873 0.017393267 4.5357425e-05 -0.00015290824 0.00010101125 6.4092914e-05 0.0018808 -0.0007901581 -0.0050517963 0.0011552573 0.0006218371 0.018815171 6.50831e-05 -0.00015483786 0.00018522456 -0.00022585088 0.0017727686 -0.0013135243 -0.0052898815 0.0017348634 0.0022603446 0.02578567 0.11499892 0.0848856 0.027628243 0.06617111 0.06345773 0.02074641 0.04708708 0.010249414 0.01011362 0.04919759 3.4813984e-05 -0.00022101554 0.00042524544 -0.00022378613 0.0020179686 -0.0016304761 -0.0019847127 0.00782525 -0.009894935 0.022291325 6.0504895e-05 -0.00030427572 0.0006680783 -0.00048179016 0.0024188198 -0.0029132601 -0.0017460414 0.008360995 -0.008858489 0.026140764 0.0001249271 -0.00052460213 0.0012108206 -0.0010382129 0.0030081978 -0.0052958843 0.00070599647 0.012527284 -0.01076973 0.028983671 0.016953055 0.010621991 0.008424597 0.0062019764 0.006882933 0.005162243 0.0036059748 0.004721658 0.0024359147 0.0039212448 3.845452e-06 -9.824957e-06 5.5390672e-05 -8.125309e-05 0.0003429073 -0.00035758334 -0.00038658112 0.0009540368 -0.00078214443 0.002854347 6.820358e-06 -1.4341834e-05 6.97174e-05 -0.00012794072 0.0003155727 -0.00052266783 -0.00021571081 0.0012215136 -0.000697209 0.0032824453 8.944922e-06 -1.9838164e-05 7.172944e-05 -0.00015041114 0.00023295605 -0.00053146714 2.510558e-05 0.0013239409 -0.00063884404 0.0031437199 0.016954029 0.010646223 0.008407834 0.006168347 0.0069020772 0.0051809927 0.0034338534 0.0044940766 0.0027657095 0.0040058745 5.873001e-06 3.081814e-05 -3.7931582e-06 -0.00012729145 0.00027365508 -0.00028647465 -0.00057962653 0.00063823943 -0.00012983095 0.0028315694 7.653638e-06 2.5058904e-05 -2.3359718e-05 -0.00014788503 0.0001683168 -0.000339464 -0.00036414294 0.0008744992 8.19761e-05 0.0030321206 6.820656e-06 1.1798223e-05 -3.0389507e-05 -0.00012819085 7.285289e-05 -0.00025698388 -0.00010626505 0.00093387894 0.00011584591 0.0026794248" pbc="F F F"
O        6.99856437       9.60611105       6.85989533
C        7.02550629       8.20823840       6.71526832
C        6.44953264       7.61207028       5.45645610
C        5.68525347       7.52679409       6.76575868
C        5.54230395       6.22341148       7.53097877
C        6.80690062       5.33877334       7.48784612
C        8.06906732       6.11404687       7.84495362
N        8.95600748       6.50027710       6.72817701
C        8.17710275       7.53846269       7.42599072
H        7.66427994       9.97268984       6.26696727
H        6.07836177       8.31726466       4.72090087
H        6.92814950       6.72959503       5.04963788
H        4.84218712       8.20594542       6.85005923
H        5.30538064       6.46110897       8.57686127
H        4.69001358       5.65274809       7.14294911
H        6.67801220       4.49821700       8.17686187
H        6.92933774       4.90661064       6.48978045
H        8.54562242       5.84446148       8.78439399
H        9.92384048       6.52200876       7.03835942
H        8.70457579       8.22116478       8.08790406
13
Lattice="14.0 0.0 0.0 0.0 14.0 0.0 0.0 0.0 14.0" Properties=species:S:1:pos:R:3 cutoff=-1.0 nneightol=1.2 dft_formation_energy_per_atom_in_eV=-4.2297487766604185 SOAP-n4-l3-c1.9-g0.23="0.15544921 0.100085564 0.07283176 0.06020005 0.06580985 0.048420668 0.03413956 0.036752366 0.022108765 0.040140264 2.2786784e-05 -3.396076e-05 5.3895997e-06 -4.7020327e-05 0.001314949 4.9325907e-05 -0.003818745 0.0009701845 -0.0015659356 0.014025779 4.1688294e-05 -7.85077e-05 6.603256e-05 -0.00015406244 0.0013202502 -0.0006228647 -0.0037103319 0.0011429226 0.00033026582 0.015763318 6.9384965e-05 -0.0001670567 0.0001701672 -0.00019020945 0.0016236319 -0.0012224833 -0.0046358774 0.0017135169 0.00216565 0.022563724 0.128705 0.08739388 0.039016195 0.071860746 0.060540173 0.026187727 0.047474198 0.016718794 0.015312251 0.051286303 3.8811202e-05 -0.00023070656 0.00024181165 7.5997305e-05 0.0019257559 -0.00089024624 -0.0028743932 0.005939612 -0.008087438 0.020516254 3.9376708e-05 -0.00019805663 0.00030007234 -6.264859e-05 0.0017791223 -0.0014424662 -0.002781441 0.007300976 -0.009946276 0.02927257 8.6662374e-05 -0.00036889623 0.00070969074 -0.00043739297 0.0023326194 -0.003373746 -0.0012680998 0.008423965 -0.007300574 0.026017707 0.0 0.0 0.0 0.0 0.0 0.0 0.0 0.0 0.0 0.0 0.0 0.0 0.0 0.0 0.0 0.0 0.0 0.0 0.0 0.0 0.0 0.0 0.0 0.0 0.0 0.0 0.0 0.0 0.0 0.0 0.0 0.0 0.0 0.0 0.0 0.0 0.0 0.0 0.0 0.0 0.05216466 0.03271599 0.02589664 0.019039791 0.020978425 0.015744511 0.0115592 0.014289035 0.008203013 0.010355556 1.2818336e-05 2.4835454e-05 6.261056e-05 -0.000260516 0.00058080355 -0.0009403885 -0.0004346878 0.0025541284 -0.0016415939 0.005702126 1.8690942e-05 4.0218565e-06 6.4718195e-05 -0.00033004515 0.00045324804 -0.0011234756 4.864092e-05 0.003236663 -0.0017843882 0.0066196676 2.1189859e-05 -2.5896541e-05 7.673788e-05 -0.00033214613 0.0003121873 -0.0010005736 0.000508421 0.0033347073 -0.0019274962 0.0064788875" pbc="F F F"
O        6.98278871       8.76454621       6.87976054
C        6.97655073       7.35466755       6.96875138
C        7.09343037       6.75765357       8.40763961
O        5.78350017       6.17191735       8.31584130
C        5.52966463       6.80180097       7.04835807
C        7.84844627       6.74356873       5.97659491
C        8.60068260       6.26829921       5.16795106
H        7.87496389       9.04791989       6.65301457
H        7.87448038       6.00772523       8.56861420
H        7.15211733       7.54329390       9.17124872
H        4.79528984       7.61311781       7.11827045
H        5.23397306       6.08614582       6.27551257
H        9.25411207       5.83934376       4.44844260
18
Lattice="14.0 0.0 0.0 0.0 14.0 0.0 0.0 0.0 14.0" Properties=species:S:1:pos:R:3 cutoff=-1.0 nneightol=1.2 dft_formation_energy_per_atom_in_eV=-4.254172096349367 SOAP-n4-l3-c1.9-g0.23="0.16841978 0.108320914 0.07910189 0.06516955 0.07090142 0.052746203 0.037350986 0.040352385 0.02312406 0.04298056 1.7500195e-05 -0.0001228441 1.0126037e-05 0.0002489435 0.001230933 0.0004814739 -0.0036481926 0.0009398539 -0.0028672519 0.013590713 3.052337e-05 -0.0001440335 0.00012219972 0.00013579051 0.001442129 -0.00020789303 -0.004190635 0.00072859786 -0.0012758785 0.017305173 5.2974825e-05 -0.00017834257 0.00022049986 1.0657106e-05 0.0017851802 -0.0010395001 -0.005437746 0.0010331674 0.0013265344 0.024765044 0.12828463 0.092994966 0.0340774 0.071383625 0.06884077 0.024112623 0.050474808 0.015546175 0.010451048 0.053952154 3.8718266e-05 -0.00024895556 0.00038031742 -9.2782306e-05 0.0022212474 -0.0013773985 -0.0028302928 0.0078797415 -0.010464275 0.02494112 5.7422923e-05 -0.00030199837 0.00057881686 -0.00030841725 0.0025132985 -0.0025185742 -0.0028437758 0.007901518 -0.00890066 0.029210428 0.00010566409 -0.0004618502 0.0010663163 -0.00089282345 0.0029064878 -0.0048418804 -0.00023811481 0.012050603 -0.010820082 0.032503754 0.018837756 0.011792466 0.009373864 0.006889986 0.0075128484 0.005560422 0.004565449 0.0053928103 0.0028302218 0.0030118108 7.1570944e-06 -3.9224335e-05 0.00010011686 -8.3464554e-05 0.0002176584 -0.00056064833 0.00046948163 0.0014540841 -0.0012217811 0.0010283289 1.2839442e-05 -5.9459235e-05 0.00014821341 -0.0001334915 0.00028004622 -0.00070735015 0.0006412708 0.0018056304 -0.001645685 0.0015039737 1.7805354e-05 -7.149637e-05 0.0001754298 -0.000170396 0.00029370165 -0.00073451025 0.00072015374 0.0018668763 -0.0018452584 0.0018313854 0.018835805 0.011807552 0.009316821 0.0069430596 0.0074075875 0.00587941 0.0042975307 0.0050251433 0.0028669322 0.0033330675 1.8962905e-06 -6.445587e-06 -2.4055576e-05 4.7079553e-05 2.1909349e-05 8.193144e-05 -0.0001602844 0.00043398587 -0.0007983023 0.0014826807 3.194079e-06 -1.183222e-05 -2.1608772e-05 6.284965e-05 4.4671157e-05 9.0972855e-05 -0.00025510075 0.0002884758 -0.0007153306 0.0018283102 4.0720306e-06 -1.4924708e-05 -1.1373455e-05 6.1715364e-05 5.8685124e-05 6.330927e-05 -0.0002865223 0.000149209 -0.0004999697 0.001849177" pbc="F F F"
O        5.48150394       4.47173917       5.30234448
C        5.58216975       5.61593036       5.67184339
C        6.83506634       6.39756762       5.68171925
C        6.74136075       7.91316547       5.49766811
C        7.07961341       7.37154932       6.83153158
C        6.32086791       7.58897078       8.14927096
N        7.60831488       7.88063050       8.87926312
C        8.42240306       6.65859783       8.75826278
C        8.36428695       7.56570672       7.59346478
H        4.69379303       6.17928483       6.04716009
H        7.69880783       5.88463991       5.27153169
H        7.52081693       8.37950907       4.90450586
H        5.75033575       8.33398521       5.35040959
H        5.68200596       8.47517684       8.14498497
H        5.76648697       6.74231235       8.56759359
H        9.31712153       6.68768254       9.37248559
H        7.92723217       5.69045364       8.71469098
H        9.20781277       8.16309779       7.26126916
20
Lattice="14.0 0.0 0.0 0.0 14.0 0.0 0.0 0.0 14.0" Properties=species:S:1:pos:R:3 cutoff=-1.0 nneightol=1.2 dft_formation_energy_per_atom_in_eV=-4.116590261339112 SOAP-n4-l3-c1.9-g0.23="0.18503064 0.11961423 0.08598502 0.07223265 0.07860607 0.057703555 0.04169279 0.043858312 0.024674445 0.048707005 2.2327016e-05 -0.0001516806 2.5780022e-05 0.00028318766 0.0014185526 0.00045391466 -0.003998348 0.001096406 -0.0031081853 0.01479307 3.960322e-05 -0.00019523923 0.00015853101 0.00020709918 0.001697652 -0.00037777895 -0.004533002 0.0008908791 -0.0011609527 0.017969996 6.592348e-05 -0.00021024393 0.00028038895 -6.0041457e-05 0.001994536 -0.001205249 -0.0058636954 0.0012901861 0.0011176745 0.02785122 0.11588415 0.08223603 0.03550607 0.060467403 0.05960412 0.024989711 0.0412729 0.017041324 0.010017221 0.04629128 3.0351459e-05 -0.00021723402 0.0003438067 -8.449061e-05 0.002178205 -0.0011723083 -0.003175614 0.007556328 -0.010372502 0.025729988 4.243701e-05 -0.00024331888 0.00047706868 -0.00024263244 0.0023667817 -0.002057254 -0.0035241146 0.006591371 -0.0075841984 0.02894787 0.00010251157 -0.0004502561 0.0010439643 -0.00086563535 0.0029285317 -0.0047665583 -0.0006549733 0.011474468 -0.009769425 0.03222891 0.016953442 0.01061524 0.008434901 0.00620069 0.006759609 0.0049815304 0.0041379165 0.0049959137 0.002403813 0.002848614 4.3899395e-06 -2.7512073e-05 7.949277e-05 -7.074473e-05 0.00017575009 -0.0005130507 0.0004583768 0.0015058044 -0.0013480714 0.0012077794 7.2474695e-06 -3.812556e-05 0.00010925477 -0.00010650033 0.00020700655 -0.0006042934 0.00059319 0.0017825322 -0.0017565459 0.0017333927 9.461951e-06 -4.2323176e-05 0.00012053569 -0.00012824686 0.0001988636 -0.0005848772 0.00062978844 0.0017543724 -0.0019024953 0.0020682833 0.016952582 0.010620914 0.008420072 0.006212082 0.006723312 0.0050731534 0.0040689437 0.004774389 0.002566202 0.002731619 1.9921642e-06 -1.4048756e-05 4.4767956e-05 -4.172763e-05 0.00010198149 -0.00032936144 0.000308388 0.001070135 -0.0010040046 0.00094258925 3.064785e-06 -1.8033077e-05 5.7746085e-05 -5.9518905e-05 0.00011178417 -0.00036750126 0.00038208696 0.0012234191 -0.0012771077 0.0013348621 3.823224e-06 -1.8715335e-05 6.000286e-05 -6.8053094e-05 9.981902e-05 -0.0003361922 0.00038738272 0.0011615327 -0.0013488706 0.0015700838" pbc="F F F"
C        8.75032198       7.72311019       5.31113055
C        8.03938445       6.55231997       4.72886427
N        7.37961316       7.41276903       5.70652434
C        7.19933548       6.85837837       7.04137746
C        7.09457665       7.97145571       8.12201529
C        6.02393104       7.49088256       9.08633113
O        4.69967973       7.62264097       8.55668574
C        5.32070160       6.33279075       8.51037919
C        5.90203454       6.00755409       7.14531110
H        9.54842982       7.51506354       6.02248910
H        8.88174035       8.63396274       4.73446470
H        7.64185524       6.59208955       3.71898529
H        8.36377773       5.56414755       5.05224456
H        8.05225992       6.20739467       7.30893001
H        8.05128664       8.13595804       8.62651279
H        6.78703105       8.91497763       7.66108103
H        6.11454234       7.66191905      10.15654093
H        4.84145242       5.56536969       9.11386743
H        5.19804987       6.29821292       6.35968949
H        6.10999607       4.93900303       7.03657561
15
Lattice="14.0 0.0 0.0 0.0 14.0 0.0 0.0 0.0 14.0" Properties=species:S:1:pos:R:3 cutoff=-1.0 nneightol=1.2 dft_formation_energy_per_atom_in_eV=-4.2705205510990965 SOAP-n4-l3-c1.9-g0.23="0.15622792 0.1030268 0.06924756 0.063476495 0.06934513 0.047789983 0.03678592 0.0350122 0.018759796 0.04675289 3.7483565e-05 -0.00018891369 0.00013744277 0.0001420281 0.0012306749 -0.00010142022 -0.0024182743 0.001818522 -0.0031860047 0.011088808 5.323275e-05 -0.00022087396 0.00022883057 8.9206216e-05 0.0013180061 -0.0005913765 -0.0025173828 0.0013380554 -0.0015949032 0.011747653 6.777615e-05 -0.00023386999 0.00029524675 8.128463e-06 0.0019302987 -0.0011138442 -0.0054461146 0.0013228792 0.00043846786 0.026246952 0.11120805 0.076119274 0.03995056 0.053391483 0.052891456 0.027902089 0.03458137 0.019258149 0.011599955 0.0390509 2.3304712e-05 -0.00016972436 0.00011152567 0.00018340591 0.0016264442 -6.718336e-05 -0.0036006882 0.0058162315 -0.009561065 0.024274511 3.9273647e-05 -0.00023455931 0.00030996895 4.9025726e-05 0.0020487926 -0.0012359252 -0.0038501143 0.0058030654 -0.008069414 0.028898116 6.239839e-05 -0.00030376526 0.0005593062 -0.0002218706 0.0021679548 -0.0026653686 -0.0024898215 0.0074494416 -0.007441142 0.030240534 0.022603156 0.014165978 0.011178045 0.008340154 0.008910869 0.00712041 0.005034868 0.005931437 0.003449476 0.004206595 2.1104802e-06 -1.2878987e-05 -2.593294e-05 6.646957e-05 7.8593956e-05 0.00015825994 -0.00040563766 0.0003186932 -0.00081683387 0.0020936143 2.4581968e-06 -1.6486272e-05 -1.846639e-05 7.807361e-05 0.00011057344 0.0001238627 -0.0005236594 0.00013876193 -0.0005866245 0.0024800398 1.8852627e-06 -1.4250023e-05 -7.5235607e-06 6.722183e-05 0.000107729036 5.6890764e-05 -0.0005082337 3.0053121e-05 -0.0002684242 0.002397792 0.045206275 0.028330928 0.022405779 0.016615147 0.017851757 0.013818725 0.010584855 0.01245994 0.0067806677 0.007744382 4.8519314e-06 -2.5063808e-05 2.1286936e-05 1.26886835e-05 0.00015595541 -0.0003113358 0.00018286734 0.0019625458 -0.0023601793 0.003184996 7.4032937e-06 -3.467689e-05 4.24348e-05 2.8450665e-06 0.00018818952 -0.0003507136 0.00017763411 0.0020010015 -0.002659085 0.004201836 1.1308786e-05 -4.4153603e-05 5.7149788e-05 1.2507288e-06 0.00020177748 -0.00034016054 0.00011577232 0.0017086084 -0.0024309193 0.0045100665" pbc="F F F"
C        7.86047090       8.46180020       6.85663736
C        7.73078870       6.94324800       6.76569963
O        6.39088123       6.46750505       6.75498001
C        5.73173827       6.55941533       7.99500547
C        4.45546798       5.84297162       7.90889714
N        3.44432705       5.28751438       7.87140956
C        8.36245524       6.38856285       5.48917769
O        9.36228876       6.83368350       4.99396970
H        8.89950353       8.73661578       6.66070166
H        7.22748337       8.93914580       6.10327537
H        7.58112799       8.83779772       7.84416855
H        8.27787555       6.47297746       7.60443320
H        6.33233190       6.11018015       8.80277871
H        5.52588097       7.60136038       8.28065990
H        7.81737849       5.51722180       5.06820601
25
Lattice="14.0 0.0 0.0 0.0 14.0 0.0 0.0 0.0 14.0" Properties=species:S:1:pos:R:3 cutoff=-1.0 nneightol=1.2 dft_formation_energy_per_atom_in_eV=-3.874119229142889 SOAP-n4-l3-c1.9-g0.23="0.21390985 0.14202265 0.093397915 0.08782887 0.09614393 0.06504345 0.05105535 0.047107548 0.024668254 0.0671695 5.909621e-05 -0.00025040834 0.00018850286 0.00011934401 0.0019480396 -0.00047938642 -0.0036667737 0.0023349915 -0.0031124905 0.014933673 8.099223e-05 -0.00029216567 0.00032591977 -2.1594667e-05 0.0018818936 -0.0012575041 -0.0031932855 0.0022804586 -0.0011221302 0.014855791 0.000116233874 -0.00035310292 0.00045079886 -0.00017871929 0.002763829 -0.001853269 -0.0072530513 0.0025135844 0.0008664599 0.0369637 0.09302967 0.064719535 0.031846043 0.045735583 0.04596932 0.022820855 0.029442282 0.01539844 0.00826408 0.036581255 2.0364225e-05 -0.00016211049 0.00012782411 0.00015210314 0.001777273 0.00017465405 -0.0044488055 0.0045329197 -0.008274652 0.024756337 3.710991e-05 -0.00022397119 0.00033584717 -1.7845403e-05 0.0022139556 -0.0012053082 -0.004629457 0.0046301265 -0.006199651 0.028911531 7.9275545e-05 -0.00036108267 0.00072564674 -0.00042115548 0.0025363904 -0.0032874173 -0.002606679 0.0076519973 -0.006187385 0.030184578 0.0 0.0 0.0 0.0 0.0 0.0 0.0 0.0 0.0 0.0 0.0 0.0 0.0 0.0 0.0 0.0 0.0 0.0 0.0 0.0 0.0 0.0 0.0 0.0 0.0 0.0 0.0 0.0 0.0 0.0 0.0 0.0 0.0 0.0 0.0 0.0 0.0 0.0 0.0 0.0 0.027125536 0.017014317 0.013462326 0.00990204 0.010903345 0.008195504 0.006003007 0.0074370224 0.00425194 0.0054183 7.1271566e-06 1.3073633e-05 3.259091e-05 -0.00013874509 0.00030362155 -0.00050419976 -0.00021071178 0.0014064541 -0.00093120814 0.0030699535 1.0470536e-05 2.242662e-06 2.9157754e-05 -0.00016934639 0.00023064569 -0.00057760556 2.5372356e-05 0.0017238985 -0.0009873451 0.0035545004 1.2189839e-05 -1.34409265e-05 2.975461e-05 -0.00016047068 0.00015313184 -0.00048973353 0.00023788426 0.0017208311 -0.0010212352 0.0034624548" pbc="F F F"